
Host: alandro

Timers On : Wed Jun 15 05:56:41 2022
Timers Off: Wed Jun 15 05:56:41 2022

Wall Time:        0.42 seconds

                                                       Time (seconds)
Module                                       User      System        Wall        Calls

--------------------------------------------------------------------------------------

**************************************************************************************

Host: alandro

Timers On : Wed Jun 15 05:57:33 2022
Timers Off: Wed Jun 15 05:57:34 2022

Wall Time:        0.29 seconds

                                                       Time (seconds)
Module                                       User      System        Wall        Calls

--------------------------------------------------------------------------------------

**************************************************************************************

Host: alandro

Timers On : Wed Jun 15 05:58:01 2022
Timers Off: Wed Jun 15 05:58:01 2022

Wall Time:        0.30 seconds

                                                       Time (seconds)
Module                                       User      System        Wall        Calls

--------------------------------------------------------------------------------------

**************************************************************************************

Host: alandro

Timers On : Wed Jun 15 05:58:23 2022
Timers Off: Wed Jun 15 05:58:24 2022

Wall Time:        0.27 seconds

                                                       Time (seconds)
Module                                       User      System        Wall        Calls

--------------------------------------------------------------------------------------

**************************************************************************************

Host: alandro

Timers On : Wed Jun 15 05:59:30 2022
Timers Off: Wed Jun 15 05:59:31 2022

Wall Time:        0.28 seconds

                                                       Time (seconds)
Module                                       User      System        Wall        Calls

--------------------------------------------------------------------------------------

**************************************************************************************

Host: alandro

Timers On : Wed Jun 15 06:02:13 2022
Timers Off: Wed Jun 15 06:02:13 2022

Wall Time:        0.27 seconds

                                                       Time (seconds)
Module                                       User      System        Wall        Calls

--------------------------------------------------------------------------------------

**************************************************************************************
